#------------------------------------------------------------------------------
#$Date: 2018-09-27 06:13:35 +0200 (jue 27 de sep de 2018) $
#$Revision: 211196 $
#$URL: svn://www.crystallography.net/cod/cif/2/31/08/2310889.cif $
#------------------------------------------------------------------------------
#
# This file is available in the Crystallography Open Database (COD),
# http://www.crystallography.net/. The original data for this entry
# were provided by IUCr Journals, http://journals.iucr.org/.
#
# The file may be used within the scientific community so long as
# proper attribution is given to the journal article from which the
# data were obtained.
#
data_2310889
loop_
_publ_author_name
'Cucka, P.'
'Barrett, C.S.'
_publ_section_title
;
 The crystal structure of Bi and of solid solutions of Pb, Sn, Sb and Te
 in Bi
;
_journal_name_full               'Acta Crystallographica (1,1948-23,1967)'
_journal_page_first              865
_journal_page_last               872
_journal_volume                  15
_journal_year                    1962
_chemical_formula_sum            Bi
_space_group_IT_number           166
_symmetry_space_group_name_Hall  '-R 3 2"'
_symmetry_space_group_name_H-M   'R -3 m :H'
_cell_angle_alpha                90
_cell_angle_beta                 90
_cell_angle_gamma                120
_cell_formula_units_Z            6
_cell_length_a                   4.546
_cell_length_b                   4.546
_cell_length_c                   11.862
_cell_volume                     212.299
_citation_journal_id_ASTM        ACCRA9
_cod_data_source_file            Cucka_ACCRA9_1962_1121.cif
_cod_data_source_block           Bi1
_cod_original_cell_volume        212.2988
_cod_original_formula_sum        Bi1
_cod_database_code               2310889
loop_
_symmetry_equiv_pos_as_xyz
x,y,z
-y,x-y,z
-x+y,-x,z
y,x,-z
-x,-x+y,-z
x-y,-y,-z
-x,-y,-z
y,-x+y,-z
x-y,x,-z
-y,-x,z
x,x-y,z
-x+y,y,z
x+2/3,y+1/3,z+1/3
-y+2/3,x-y+1/3,z+1/3
-x+y+2/3,-x+1/3,z+1/3
y+2/3,x+1/3,-z+1/3
-x+2/3,-x+y+1/3,-z+1/3
x-y+2/3,-y+1/3,-z+1/3
-x+2/3,-y+1/3,-z+1/3
y+2/3,-x+y+1/3,-z+1/3
x-y+2/3,x+1/3,-z+1/3
-y+2/3,-x+1/3,z+1/3
x+2/3,x-y+1/3,z+1/3
-x+y+2/3,y+1/3,z+1/3
x+1/3,y+2/3,z+2/3
-y+1/3,x-y+2/3,z+2/3
-x+y+1/3,-x+2/3,z+2/3
y+1/3,x+2/3,-z+2/3
-x+1/3,-x+y+2/3,-z+2/3
x-y+1/3,-y+2/3,-z+2/3
-x+1/3,-y+2/3,-z+2/3
y+1/3,-x+y+2/3,-z+2/3
x-y+1/3,x+2/3,-z+2/3
-y+1/3,-x+2/3,z+2/3
x+1/3,x-y+2/3,z+2/3
-x+y+1/3,y+2/3,z+2/3
loop_
_atom_site_label
_atom_site_type_symbol
_atom_site_fract_x
_atom_site_fract_y
_atom_site_fract_z
_atom_site_occupancy
_atom_site_U_iso_or_equiv
Bi1 Bi 0 0 0.23389 1 0.0
